# Force        
# CofR         : (0.0000000e+00 0.0000000e+00 0.0000000e+00)
#
# Time         	total_x total_y total_z	pressure_x pressure_y pressure_z	viscous_x viscous_y viscous_z
1               1.7491388e-04 -5.6477126e-07 -1.9764577e-04 1.7024008e-04 -1.8431986e-07 -1.9512085e-04 4.6737952e-06 -3.8045139e-07 -2.5249217e-06
2               2.0095491e+00 -2.5530003e-03 -1.6665041e+00 2.0062741e+00 -2.4756853e-03 -1.6655855e+00 3.2750728e-03 -7.7315068e-05 -9.1866154e-04
3               3.6941702e+00 -1.2241061e-01 -2.0775827e+00 3.6913117e+00 -1.2234650e-01 -2.0767425e+00 2.8585036e-03 -6.4105674e-05 -8.4029171e-04
4               3.6027852e+00 -1.3150235e-01 -1.3251349e+00 3.6002689e+00 -1.3144526e-01 -1.3243874e+00 2.5163243e-03 -5.7093573e-05 -7.4744666e-04
5               3.1474268e+00 -9.1922260e-02 -4.6126527e-01 3.1451512e+00 -9.1865195e-02 -4.6061393e-01 2.2756600e-03 -5.7065399e-05 -6.5133820e-04
6               2.7919231e+00 -4.2300645e-02 1.8276630e-01 2.7898126e+00 -4.2238701e-02 1.8333020e-01 2.1105485e-03 -6.1943610e-05 -5.6389687e-04
7               2.6066289e+00 -6.3894604e-03 5.8968863e-01 2.6046246e+00 -6.3267900e-03 5.9018273e-01 2.0043597e-03 -6.2670369e-05 -4.9410494e-04
8               2.5305734e+00 9.3582851e-03 8.5123545e-01 2.5286344e+00 9.4180890e-03 8.5167261e-01 1.9390048e-03 -5.9803821e-05 -4.3715788e-04
9               2.5046053e+00 1.1403576e-02 1.0435537e+00 2.5027039e+00 1.1460163e-02 1.0439434e+00 1.9013853e-03 -5.6586342e-05 -3.8972099e-04
10              2.4923215e+00 7.6476095e-03 1.2005035e+00 2.4904406e+00 7.6997513e-03 1.2008511e+00 1.8808895e-03 -5.2141762e-05 -3.4766126e-04
11              2.4831322e+00 3.2468759e-03 1.3374330e+00 2.4812625e+00 3.2945917e-03 1.3377406e+00 1.8696383e-03 -4.7715878e-05 -3.0755906e-04
12              2.4767910e+00 -6.6059444e-05 1.4533785e+00 2.4749261e+00 -2.3464158e-05 1.4536474e+00 1.8649152e-03 -4.2595286e-05 -2.6885382e-04
13              2.4729497e+00 -1.9596618e-03 1.5448602e+00 2.4710872e+00 -1.9230934e-03 1.5450931e+00 1.8624277e-03 -3.6568332e-05 -2.3286581e-04
14              2.4711845e+00 -2.1389473e-03 1.6103470e+00 2.4693206e+00 -2.1088827e-03 1.6105452e+00 1.8639309e-03 -3.0064558e-05 -1.9817197e-04
15              2.4707381e+00 -1.0803818e-03 1.6514341e+00 2.4688692e+00 -1.0562555e-03 1.6516010e+00 1.8688741e-03 -2.4126256e-05 -1.6688773e-04
16              2.4713851e+00 -1.9115727e-04 1.6718226e+00 2.4695087e+00 -1.7382889e-04 1.6719594e+00 1.8764545e-03 -1.7328381e-05 -1.3679341e-04
17              2.4735646e+00 -5.9789031e-04 1.6745615e+00 2.4716793e+00 -5.8697847e-04 1.6746706e+00 1.8852737e-03 -1.0911839e-05 -1.0902733e-04
18              2.4769150e+00 -3.4491522e-03 1.6612856e+00 2.4750196e+00 -3.4437658e-03 1.6613698e+00 1.8954338e-03 -5.3863761e-06 -8.4205994e-05
19              2.4806868e+00 -1.0482250e-02 1.6337646e+00 2.4787793e+00 -1.0482588e-02 1.6338271e+00 1.9074261e-03 3.3751872e-07 -6.2527298e-05
20              2.4846065e+00 -2.2726162e-02 1.5932896e+00 2.4826840e+00 -2.2731399e-02 1.5933336e+00 1.9225600e-03 5.2376114e-06 -4.3968959e-05
21              2.4888038e+00 -4.0713593e-02 1.5412692e+00 2.4868670e+00 -4.0722418e-02 1.5412968e+00 1.9368064e-03 8.8250413e-06 -2.7622323e-05
22              2.4925249e+00 -6.4144771e-02 1.4794716e+00 2.4905723e+00 -6.4156784e-02 1.4794861e+00 1.9525835e-03 1.2013577e-05 -1.4493275e-05
23              2.4955138e+00 -9.1587382e-02 1.4100701e+00 2.4935469e+00 -9.1601353e-02 1.4100740e+00 1.9669058e-03 1.3971214e-05 -3.8461740e-06
24              2.4998900e+00 -1.1982191e-01 1.3364692e+00 2.4979065e+00 -1.1983641e-01 1.3364648e+00 1.9834976e-03 1.4494216e-05 4.3806770e-06
25              2.5077461e+00 -1.4790677e-01 1.2608735e+00 2.5057476e+00 -1.4792214e-01 1.2608627e+00 1.9984607e-03 1.5373922e-05 1.0791592e-05
26              2.5209274e+00 -1.7488527e-01 1.1870813e+00 2.5189123e+00 -1.7489896e-01 1.1870659e+00 2.0150980e-03 1.3680707e-05 1.5459442e-05
27              2.5409666e+00 -2.0148723e-01 1.1171683e+00 2.5389373e+00 -2.0149922e-01 1.1171498e+00 2.0292649e-03 1.1989187e-05 1.8511224e-05
28              2.5667272e+00 -2.2768184e-01 1.0531708e+00 2.5646812e+00 -2.2769154e-01 1.0531507e+00 2.0459753e-03 9.6983060e-06 2.0083969e-05
29              2.5960525e+00 -2.5409258e-01 9.9567277e-01 2.5939934e+00 -2.5409967e-01 9.9565111e-01 2.0590480e-03 7.0935353e-06 2.1660497e-05
30              2.6264945e+00 -2.7959152e-01 9.4567714e-01 2.6244199e+00 -2.7959516e-01 9.4565443e-01 2.0745954e-03 3.6429826e-06 2.2708583e-05
31              2.6554575e+00 -3.0589358e-01 9.0388457e-01 2.6533702e+00 -3.0589349e-01 9.0386079e-01 2.0872830e-03 -8.6426151e-08 2.3783441e-05
32              2.6831777e+00 -3.3223533e-01 8.6980273e-01 2.6810767e+00 -3.3223070e-01 8.6977765e-01 2.1009958e-03 -4.6234845e-06 2.5083700e-05
33              2.7082631e+00 -3.5633825e-01 8.4256614e-01 2.7061503e+00 -3.5632914e-01 8.4253962e-01 2.1127942e-03 -9.1091871e-06 2.6527721e-05
34              2.7287900e+00 -3.7816823e-01 8.2024759e-01 2.7266656e+00 -3.7815465e-01 8.2021875e-01 2.1243832e-03 -1.3581684e-05 2.8847081e-05
35              2.7443769e+00 -3.9629780e-01 8.0217908e-01 2.7422445e+00 -3.9627925e-01 8.0214673e-01 2.1323590e-03 -1.8547461e-05 3.2355701e-05
36              2.7536810e+00 -4.1100053e-01 7.8812085e-01 2.7515381e+00 -4.1097821e-01 7.8808395e-01 2.1428445e-03 -2.2317688e-05 3.6903395e-05
37              2.7568389e+00 -4.2265071e-01 7.7811143e-01 2.7546888e+00 -4.2262493e-01 7.7806899e-01 2.1501592e-03 -2.5776236e-05 4.2437496e-05
38              2.7538030e+00 -4.3257649e-01 7.7255144e-01 2.7516480e+00 -4.3254739e-01 7.7250245e-01 2.1550300e-03 -2.9104068e-05 4.8995687e-05
39              2.7455571e+00 -4.4139270e-01 7.7191241e-01 2.7433982e+00 -4.4136100e-01 7.7185761e-01 2.1589053e-03 -3.1699574e-05 5.4803125e-05
40              2.7327202e+00 -4.5066422e-01 7.7569993e-01 2.7305576e+00 -4.5062964e-01 7.7563892e-01 2.1626346e-03 -3.4584044e-05 6.1005982e-05
41              2.7157925e+00 -4.6178411e-01 7.8323678e-01 2.7136274e+00 -4.6174730e-01 7.8316995e-01 2.1650877e-03 -3.6808779e-05 6.6830793e-05
42              2.6951796e+00 -4.7589370e-01 7.9405418e-01 2.6930119e+00 -4.7585365e-01 7.9398100e-01 2.1676442e-03 -4.0048051e-05 7.3180904e-05
43              2.6719015e+00 -4.9450336e-01 8.0787204e-01 2.6697320e+00 -4.9446022e-01 8.0779292e-01 2.1695442e-03 -4.3139164e-05 7.9114781e-05
44              2.6452639e+00 -5.1851206e-01 8.2409452e-01 2.6430932e+00 -5.1846507e-01 8.2400972e-01 2.1707188e-03 -4.6997351e-05 8.4793052e-05
45              2.6163011e+00 -5.4795470e-01 8.4218436e-01 2.6141285e+00 -5.4790386e-01 8.4209415e-01 2.1725822e-03 -5.0840017e-05 9.0212376e-05
46              2.5859403e+00 -5.8293504e-01 8.6163368e-01 2.5837662e+00 -5.8287922e-01 8.6153780e-01 2.1740743e-03 -5.5821481e-05 9.5883362e-05
47              2.5541668e+00 -6.2186413e-01 8.8172701e-01 2.5519915e+00 -6.2180252e-01 8.8162569e-01 2.1752852e-03 -6.1615515e-05 1.0132807e-04
48              2.5206941e+00 -6.6262509e-01 9.0192771e-01 2.5185185e+00 -6.6255668e-01 9.0182092e-01 2.1756011e-03 -6.8412658e-05 1.0679411e-04
49              2.4833479e+00 -7.0539467e-01 9.2288875e-01 2.4811716e+00 -7.0531911e-01 9.2277678e-01 2.1763241e-03 -7.5554697e-05 1.1197410e-04
50              2.4429323e+00 -7.4947475e-01 9.4364102e-01 2.4407572e+00 -7.4939125e-01 9.4352424e-01 2.1750713e-03 -8.3497518e-05 1.1678151e-04
51              2.4013618e+00 -7.9448719e-01 9.6545832e-01 2.3991879e+00 -7.9439524e-01 9.6533716e-01 2.1738994e-03 -9.1952299e-05 1.2115488e-04
52              2.3609726e+00 -8.3931000e-01 9.8755710e-01 2.3588012e+00 -8.3920907e-01 9.8743211e-01 2.1714311e-03 -1.0092205e-04 1.2499318e-04
53              2.3217044e+00 -8.8487073e-01 1.0101129e+00 2.3195345e+00 -8.8476086e-01 1.0099846e+00 2.1698988e-03 -1.0986555e-04 1.2833565e-04
54              2.2811717e+00 -9.3133744e-01 1.0332595e+00 2.2790050e+00 -9.3121844e-01 1.0331278e+00 2.1666909e-03 -1.1900742e-04 1.3166724e-04
55              2.2390874e+00 -9.7991200e-01 1.0574284e+00 2.2369243e+00 -9.7978382e-01 1.0572931e+00 2.1630719e-03 -1.2818485e-04 1.3529193e-04
56              2.1895850e+00 -1.0325981e+00 1.0825452e+00 2.1874257e+00 -1.0324614e+00 1.0824057e+00 2.1593028e-03 -1.3674284e-04 1.3945982e-04
57              2.1360597e+00 -1.0858852e+00 1.1088326e+00 2.1339048e+00 -1.0857399e+00 1.1086889e+00 2.1549393e-03 -1.4535186e-04 1.4369790e-04
58              2.0800888e+00 -1.1391366e+00 1.1358046e+00 2.0779398e+00 -1.1389829e+00 1.1356563e+00 2.1490029e-03 -1.5372984e-04 1.4828905e-04
59              2.0224901e+00 -1.1926979e+00 1.1629190e+00 2.0203475e+00 -1.1925359e+00 1.1627663e+00 2.1426449e-03 -1.6200208e-04 1.5271481e-04
60              1.9638022e+00 -1.2459382e+00 1.1894346e+00 1.9616664e+00 -1.2457680e+00 1.1892775e+00 2.1357123e-03 -1.7014750e-04 1.5708966e-04
61              1.9040698e+00 -1.3006756e+00 1.2139981e+00 1.9019405e+00 -1.3004977e+00 1.2138365e+00 2.1293596e-03 -1.7789284e-04 1.6163720e-04
62              1.8452054e+00 -1.3581218e+00 1.2356125e+00 1.8430838e+00 -1.3579364e+00 1.2354460e+00 2.1215284e-03 -1.8546985e-04 1.6652746e-04
63              1.7863487e+00 -1.4191186e+00 1.2537823e+00 1.7842342e+00 -1.4189257e+00 1.2536109e+00 2.1144932e-03 -1.9288246e-04 1.7141917e-04
64              1.7260879e+00 -1.4829768e+00 1.2680549e+00 1.7239816e+00 -1.4827765e+00 1.2678783e+00 2.1062529e-03 -2.0027849e-04 1.7665022e-04
65              1.6637316e+00 -1.5482638e+00 1.2784672e+00 1.6616332e+00 -1.5480565e+00 1.2782854e+00 2.0983820e-03 -2.0729459e-04 1.8184327e-04
66              1.6010066e+00 -1.6131514e+00 1.2848902e+00 1.5989172e+00 -1.6129370e+00 1.2847035e+00 2.0894116e-03 -2.1437844e-04 1.8674433e-04
67              1.5406007e+00 -1.6759999e+00 1.2863766e+00 1.5385202e+00 -1.6757785e+00 1.2861848e+00 2.0804304e-03 -2.2145463e-04 1.9177709e-04
68              1.4862565e+00 -1.7356310e+00 1.2833255e+00 1.4841858e+00 -1.7354028e+00 1.2831294e+00 2.0707220e-03 -2.2819515e-04 1.9609205e-04
69              1.4368907e+00 -1.7925543e+00 1.2758346e+00 1.4348291e+00 -1.7923195e+00 1.2756342e+00 2.0616413e-03 -2.3481275e-04 2.0037439e-04
70              1.3924110e+00 -1.8455022e+00 1.2643256e+00 1.3903587e+00 -1.8452611e+00 1.2641212e+00 2.0523422e-03 -2.4117417e-04 2.0435766e-04
71              1.3524155e+00 -1.8938627e+00 1.2486294e+00 1.3503729e+00 -1.8936156e+00 1.2484212e+00 2.0425428e-03 -2.4711334e-04 2.0820631e-04
72              1.3178761e+00 -1.9362357e+00 1.2282899e+00 1.3158433e+00 -1.9359829e+00 1.2280784e+00 2.0328321e-03 -2.5287877e-04 2.1140560e-04
73              1.2876988e+00 -1.9718525e+00 1.2036176e+00 1.2856754e+00 -1.9715945e+00 1.2034029e+00 2.0234035e-03 -2.5800189e-04 2.1475710e-04
74              1.2604424e+00 -2.0001474e+00 1.1751477e+00 1.2584281e+00 -1.9998844e+00 1.1749301e+00 2.0142990e-03 -2.6296888e-04 2.1754730e-04
75              1.2347060e+00 -2.0208497e+00 1.1437074e+00 1.2327013e+00 -2.0205828e+00 1.1434871e+00 2.0046689e-03 -2.6693064e-04 2.2026966e-04
76              1.2126059e+00 -2.0334873e+00 1.1090828e+00 1.2106092e+00 -2.0332167e+00 1.1088606e+00 1.9966832e-03 -2.7053435e-04 2.2220835e-04
77              1.1975889e+00 -2.0370046e+00 1.0710296e+00 1.1956002e+00 -2.0367313e+00 1.0708054e+00 1.9886740e-03 -2.7331863e-04 2.2420237e-04
78              1.1903108e+00 -2.0308021e+00 1.0293530e+00 1.1883302e+00 -2.0305261e+00 1.0291274e+00 1.9806175e-03 -2.7598975e-04 2.2554553e-04
79              1.1900835e+00 -2.0144752e+00 9.8392308e-01 1.1881098e+00 -2.0141976e+00 9.8369645e-01 1.9737523e-03 -2.7759979e-04 2.2662487e-04
80              1.1958268e+00 -1.9878802e+00 9.3503655e-01 1.1938590e+00 -1.9876011e+00 9.3480913e-01 1.9677459e-03 -2.7908634e-04 2.2741947e-04
81              1.2054312e+00 -1.9514260e+00 8.8331969e-01 1.2034704e+00 -1.9511469e+00 8.8309257e-01 1.9608122e-03 -2.7916619e-04 2.2712499e-04
82              1.2188437e+00 -1.9053940e+00 8.2922859e-01 1.2168873e+00 -1.9051152e+00 8.2900188e-01 1.9564367e-03 -2.7888796e-04 2.2670354e-04
83              1.2356870e+00 -1.8502210e+00 7.7303297e-01 1.2337365e+00 -1.8499440e+00 7.7280776e-01 1.9504911e-03 -2.7703000e-04 2.2521604e-04
84              1.2561641e+00 -1.7862242e+00 7.1440945e-01 1.2542163e+00 -1.7859491e+00 7.1418570e-01 1.9478309e-03 -2.7515759e-04 2.2374968e-04
85              1.2797149e+00 -1.7140473e+00 6.5343861e-01 1.2777702e+00 -1.7137755e+00 6.5321727e-01 1.9446401e-03 -2.7173103e-04 2.2133836e-04
86              1.3060514e+00 -1.6341271e+00 5.8967855e-01 1.3041096e+00 -1.6338593e+00 5.8946026e-01 1.9418101e-03 -2.6781807e-04 2.1828888e-04
87              1.3343518e+00 -1.5480054e+00 5.2357143e-01 1.3324116e+00 -1.5477431e+00 5.2335707e-01 1.9402080e-03 -2.6228423e-04 2.1436377e-04
88              1.3645442e+00 -1.4571826e+00 4.5527416e-01 1.3626042e+00 -1.4569263e+00 4.5506420e-01 1.9399730e-03 -2.5633981e-04 2.0996389e-04
89              1.3971333e+00 -1.3618325e+00 3.8472115e-01 1.3951945e+00 -1.3615839e+00 3.8451680e-01 1.9388039e-03 -2.4864138e-04 2.0434832e-04
90              1.4317392e+00 -1.2654511e+00 3.1244649e-01 1.4297983e+00 -1.2652101e+00 3.1224793e-01 1.9408097e-03 -2.4105058e-04 1.9855901e-04
91              1.4660006e+00 -1.1726440e+00 2.4087221e-01 1.4640582e+00 -1.1724116e+00 2.4068060e-01 1.9423638e-03 -2.3242146e-04 1.9160926e-04
92              1.5005093e+00 -1.0852451e+00 1.7241702e-01 1.4985668e+00 -1.0850220e+00 1.7223297e-01 1.9424965e-03 -2.2311240e-04 1.8405000e-04
93              1.5363842e+00 -1.0050144e+00 1.0787554e-01 1.5344388e+00 -1.0048008e+00 1.0769957e-01 1.9454619e-03 -2.1363664e-04 1.7597695e-04
94              1.5778019e+00 -9.2928680e-01 5.0611667e-02 1.5758533e+00 -9.2908294e-01 5.0443912e-02 1.9486394e-03 -2.0386142e-04 1.6775574e-04
95              1.6257070e+00 -8.5701539e-01 4.9930298e-03 1.6237554e+00 -8.5682166e-01 4.8339942e-03 1.9515992e-03 -1.9372625e-04 1.5903554e-04
96              1.6815373e+00 -7.8818974e-01 -2.5515016e-02 1.6795811e+00 -7.8800679e-01 -2.5665929e-02 1.9562658e-03 -1.8294652e-04 1.5091280e-04
97              1.7494862e+00 -7.2083862e-01 -4.2446265e-02 1.7475260e+00 -7.2066687e-01 -4.2589075e-02 1.9602305e-03 -1.7174598e-04 1.4280934e-04
98              1.8187823e+00 -6.6318395e-01 -4.4288393e-02 1.8168166e+00 -6.6302350e-01 -4.4423807e-02 1.9657255e-03 -1.6045663e-04 1.3541405e-04
99              1.8806831e+00 -6.2446649e-01 -3.3513280e-02 1.8787131e+00 -6.2431711e-01 -3.3640976e-02 1.9699510e-03 -1.4938022e-04 1.2769604e-04
100             1.9313728e+00 -6.0846106e-01 -1.1343525e-02 1.9293968e+00 -6.0832195e-01 -1.1464770e-02 1.9760391e-03 -1.3911829e-04 1.2124448e-04
101             1.9776259e+00 -6.1264203e-01 1.6562457e-02 1.9756449e+00 -6.1251223e-01 1.6447702e-02 1.9810132e-03 -1.2979934e-04 1.1475560e-04
102             2.0081191e+00 -6.3810674e-01 4.5421901e-02 2.0061317e+00 -6.3798455e-01 4.5312749e-02 1.9873903e-03 -1.2218617e-04 1.0915194e-04
103             2.0195346e+00 -6.8249076e-01 7.1188100e-02 2.0175418e+00 -6.8237514e-01 7.1085059e-02 1.9928169e-03 -1.1562325e-04 1.0304104e-04
104             2.0175736e+00 -7.3945823e-01 9.2153529e-02 2.0155746e+00 -7.3934737e-01 9.2055563e-02 1.9990662e-03 -1.1086095e-04 9.7966630e-05
105             2.0049999e+00 -8.0049014e-01 1.1194944e-01 2.0029951e+00 -8.0038303e-01 1.1185676e-01 2.0047900e-03 -1.0711178e-04 9.2680230e-05
106             1.9902493e+00 -8.5798173e-01 1.3246585e-01 1.9882383e+00 -8.5787712e-01 1.3237834e-01 2.0109916e-03 -1.0461668e-04 8.7507005e-05
107             1.9835458e+00 -9.0662399e-01 1.5479357e-01 1.9815299e+00 -9.0652096e-01 1.5471094e-01 2.0158963e-03 -1.0302926e-04 8.2626449e-05
108             1.9834617e+00 -9.4335518e-01 1.8089121e-01 1.9814403e+00 -9.4325318e-01 1.8081272e-01 2.0214447e-03 -1.0199553e-04 7.8491976e-05
109             1.9866068e+00 -9.6976212e-01 2.1374608e-01 1.9845806e+00 -9.6966053e-01 2.1367125e-01 2.0262365e-03 -1.0159462e-04 7.4822971e-05
110             1.9884580e+00 -9.8741447e-01 2.5314454e-01 1.9864270e+00 -9.8731254e-01 2.5307216e-01 2.0309705e-03 -1.0193822e-04 7.2380956e-05
111             1.9879898e+00 -9.9915187e-01 2.9622273e-01 1.9859559e+00 -9.9904947e-01 2.9615198e-01 2.0339023e-03 -1.0239971e-04 7.0747417e-05
112             1.9851320e+00 -1.0067107e+00 3.3828458e-01 1.9830946e+00 -1.0066072e+00 3.3821364e-01 2.0373617e-03 -1.0347246e-04 7.0941425e-05
113             1.9752615e+00 -1.0126628e+00 3.7611347e-01 1.9732221e+00 -1.0125580e+00 3.7604168e-01 2.0394229e-03 -1.0479549e-04 7.1788730e-05
114             1.9585704e+00 -1.0179816e+00 4.0631068e-01 1.9565278e+00 -1.0178752e+00 4.0623737e-01 2.0425933e-03 -1.0634967e-04 7.3304073e-05
115             1.9369507e+00 -1.0241065e+00 4.2866755e-01 1.9349063e+00 -1.0239979e+00 4.2859218e-01 2.0444104e-03 -1.0863037e-04 7.5361746e-05
116             1.9121939e+00 -1.0311193e+00 4.4300031e-01 1.9101464e+00 -1.0310085e+00 4.4292339e-01 2.0474897e-03 -1.1082771e-04 7.6927648e-05
117             1.8866005e+00 -1.0380958e+00 4.5032604e-01 1.8845528e+00 -1.0379823e+00 4.5024686e-01 2.0477542e-03 -1.1348184e-04 7.9185170e-05
118             1.8606201e+00 -1.0454272e+00 4.5172397e-01 1.8585703e+00 -1.0453109e+00 4.5164228e-01 2.0498214e-03 -1.1629380e-04 8.1695040e-05
119             1.8355084e+00 -1.0525450e+00 4.4838833e-01 1.8334586e+00 -1.0524253e+00 4.4830416e-01 2.0497610e-03 -1.1963340e-04 8.4170381e-05
120             1.8129320e+00 -1.0594969e+00 4.4134954e-01 1.8108819e+00 -1.0593735e+00 4.4126301e-01 2.0501501e-03 -1.2337735e-04 8.6533367e-05
121             1.7924170e+00 -1.0667433e+00 4.3176765e-01 1.7903680e+00 -1.0666165e+00 4.3167875e-01 2.0490282e-03 -1.2688172e-04 8.8893943e-05
122             1.7742705e+00 -1.0741200e+00 4.1994104e-01 1.7722215e+00 -1.0739899e+00 4.1984964e-01 2.0490281e-03 -1.3010983e-04 9.1400118e-05
123             1.7578791e+00 -1.0811694e+00 4.0678972e-01 1.7558319e+00 -1.0810362e+00 4.0669632e-01 2.0472441e-03 -1.3319311e-04 9.3394493e-05
124             1.7440051e+00 -1.0874117e+00 3.9300951e-01 1.7419587e+00 -1.0872754e+00 3.9291406e-01 2.0464242e-03 -1.3637050e-04 9.5447742e-05
125             1.7327155e+00 -1.0931489e+00 3.7957019e-01 1.7306715e+00 -1.0930098e+00 3.7947259e-01 2.0440458e-03 -1.3912486e-04 9.7602920e-05
126             1.7246555e+00 -1.0983765e+00 3.6688045e-01 1.7226127e+00 -1.0982346e+00 3.6678049e-01 2.0428815e-03 -1.4187755e-04 9.9967475e-05
127             1.7186583e+00 -1.1033757e+00 3.5536166e-01 1.7166182e+00 -1.1032315e+00 3.5525987e-01 2.0400956e-03 -1.4413117e-04 1.0178845e-04
128             1.7152934e+00 -1.1074090e+00 3.4444825e-01 1.7132547e+00 -1.1072626e+00 3.4434474e-01 2.0387200e-03 -1.4642376e-04 1.0351190e-04
129             1.7142184e+00 -1.1099891e+00 3.3385803e-01 1.7121822e+00 -1.1098411e+00 3.3375307e-01 2.0361922e-03 -1.4803294e-04 1.0495998e-04
130             1.7167065e+00 -1.1104953e+00 3.2311483e-01 1.7146712e+00 -1.1103456e+00 3.2300834e-01 2.0353360e-03 -1.4973491e-04 1.0649385e-04
131             1.7228092e+00 -1.1082823e+00 3.1249957e-01 1.7207759e+00 -1.1081310e+00 3.1239212e-01 2.0333554e-03 -1.5133117e-04 1.0744354e-04
132             1.7325312e+00 -1.1033393e+00 3.0277593e-01 1.7304988e+00 -1.1031863e+00 3.0266770e-01 2.0323961e-03 -1.5299925e-04 1.0823313e-04
133             1.7452328e+00 -1.0963851e+00 2.9331368e-01 1.7432018e+00 -1.0962310e+00 2.9320490e-01 2.0310654e-03 -1.5409734e-04 1.0877523e-04
134             1.7604598e+00 -1.0865953e+00 2.8293545e-01 1.7584294e+00 -1.0864401e+00 2.8282614e-01 2.0304285e-03 -1.5529050e-04 1.0930476e-04
135             1.7772098e+00 -1.0753873e+00 2.7228753e-01 1.7751814e+00 -1.0752306e+00 2.7217819e-01 2.0283817e-03 -1.5665393e-04 1.0934389e-04
136             1.7952887e+00 -1.0617966e+00 2.6081980e-01 1.7932593e+00 -1.0616394e+00 2.6070961e-01 2.0294603e-03 -1.5717575e-04 1.1019348e-04
137             1.8145588e+00 -1.0466773e+00 2.4899726e-01 1.8125295e+00 -1.0465194e+00 2.4888689e-01 2.0293533e-03 -1.5782509e-04 1.1036718e-04
138             1.8349937e+00 -1.0306445e+00 2.3724761e-01 1.8329636e+00 -1.0304859e+00 2.3713674e-01 2.0300751e-03 -1.5857847e-04 1.1086922e-04
139             1.8555782e+00 -1.0133191e+00 2.2557547e-01 1.8535483e+00 -1.0131604e+00 2.2546436e-01 2.0298477e-03 -1.5871494e-04 1.1110387e-04
140             1.8761847e+00 -9.9431783e-01 2.1416119e-01 1.8741538e+00 -9.9415900e-01 2.1404978e-01 2.0309467e-03 -1.5882882e-04 1.1140894e-04
141             1.8961163e+00 -9.7283785e-01 2.0381742e-01 1.8940852e+00 -9.7267934e-01 2.0370621e-01 2.0310626e-03 -1.5851148e-04 1.1120825e-04
142             1.9158992e+00 -9.4963546e-01 1.9512687e-01 1.9138673e+00 -9.4947717e-01 1.9501573e-01 2.0318840e-03 -1.5828708e-04 1.1113898e-04
143             1.9352544e+00 -9.2491791e-01 1.8866299e-01 1.9332228e+00 -9.2476052e-01 1.8855232e-01 2.0315474e-03 -1.5738342e-04 1.1066186e-04
144             1.9544854e+00 -8.9826065e-01 1.8466456e-01 1.9524535e+00 -8.9810369e-01 1.8455479e-01 2.0318944e-03 -1.5695912e-04 1.0976226e-04
145             1.9730251e+00 -8.7014363e-01 1.8329595e-01 1.9709923e+00 -8.6998841e-01 1.8318640e-01 2.0327988e-03 -1.5522366e-04 1.0955507e-04
146             1.9911937e+00 -8.4060040e-01 1.8480564e-01 1.9891604e+00 -8.4044669e-01 1.8469646e-01 2.0333512e-03 -1.5371186e-04 1.0917806e-04
147             2.0073989e+00 -8.1157592e-01 1.8919604e-01 2.0053665e+00 -8.1142397e-01 1.8908704e-01 2.0324346e-03 -1.5194543e-04 1.0900584e-04
148             2.0191666e+00 -7.8488962e-01 1.9670831e-01 2.0171331e+00 -7.8473920e-01 1.9659941e-01 2.0334966e-03 -1.5042091e-04 1.0890269e-04
149             2.0307319e+00 -7.5911200e-01 2.0724128e-01 2.0286986e+00 -7.5896347e-01 2.0713242e-01 2.0332550e-03 -1.4853232e-04 1.0886842e-04
150             2.0403240e+00 -7.3487370e-01 2.2002187e-01 2.0382896e+00 -7.3472700e-01 2.1991277e-01 2.0343666e-03 -1.4670323e-04 1.0910228e-04
151             2.0465452e+00 -7.1229255e-01 2.3440348e-01 2.0445102e+00 -7.1214796e-01 2.3429441e-01 2.0350090e-03 -1.4459386e-04 1.0906986e-04
152             2.0514893e+00 -6.8976188e-01 2.4998755e-01 2.0494521e+00 -6.8961921e-01 2.4987854e-01 2.0371315e-03 -1.4266519e-04 1.0900865e-04
153             2.0521157e+00 -6.6873623e-01 2.6665549e-01 2.0500765e+00 -6.6859579e-01 2.6654666e-01 2.0392325e-03 -1.4044496e-04 1.0882835e-04
154             2.0502924e+00 -6.4853771e-01 2.8396138e-01 2.0482501e+00 -6.4839922e-01 2.8385247e-01 2.0422870e-03 -1.3849228e-04 1.0890300e-04
155             2.0470229e+00 -6.2979046e-01 3.0113166e-01 2.0449782e+00 -6.2965433e-01 3.0102278e-01 2.0446286e-03 -1.3612957e-04 1.0887967e-04
156             2.0443094e+00 -6.1175877e-01 3.1715469e-01 2.0422610e+00 -6.1162518e-01 3.1704545e-01 2.0483747e-03 -1.3358703e-04 1.0924110e-04
157             2.0422270e+00 -5.9481555e-01 3.3117689e-01 2.0401759e+00 -5.9468430e-01 3.3106745e-01 2.0511636e-03 -1.3125432e-04 1.0944088e-04
158             2.0413196e+00 -5.8034497e-01 3.4371639e-01 2.0392651e+00 -5.8021571e-01 3.4360641e-01 2.0545168e-03 -1.2926193e-04 1.0998456e-04
159             2.0406771e+00 -5.6745150e-01 3.5388800e-01 2.0386213e+00 -5.6732427e-01 3.5377752e-01 2.0557713e-03 -1.2723130e-04 1.1047885e-04
160             2.0389320e+00 -5.5637740e-01 3.6183852e-01 2.0368734e+00 -5.5625199e-01 3.6172742e-01 2.0585333e-03 -1.2541291e-04 1.1110207e-04
161             2.0343340e+00 -5.4847457e-01 3.6857167e-01 2.0322742e+00 -5.4835065e-01 3.6846037e-01 2.0597861e-03 -1.2392572e-04 1.1130214e-04
162             2.0283417e+00 -5.4329539e-01 3.7440210e-01 2.0262801e+00 -5.4317280e-01 3.7429064e-01 2.0616140e-03 -1.2258750e-04 1.1146457e-04
163             2.0217981e+00 -5.4051342e-01 3.7971359e-01 2.0197360e+00 -5.4039240e-01 3.7960199e-01 2.0621547e-03 -1.2102141e-04 1.1160043e-04
164             2.0165324e+00 -5.3929534e-01 3.8444478e-01 2.0144687e+00 -5.3917593e-01 3.8433365e-01 2.0636369e-03 -1.1941379e-04 1.1112995e-04
165             2.0128880e+00 -5.3815373e-01 3.8842786e-01 2.0108250e+00 -5.3803534e-01 3.8831634e-01 2.0630034e-03 -1.1838945e-04 1.1151875e-04
166             2.0115717e+00 -5.3570126e-01 3.9096993e-01 2.0095079e+00 -5.3558396e-01 3.9085844e-01 2.0637634e-03 -1.1729821e-04 1.1149366e-04
167             2.0125179e+00 -5.3136751e-01 3.9217583e-01 2.0104546e+00 -5.3125082e-01 3.9206516e-01 2.0632736e-03 -1.1669296e-04 1.1067277e-04
168             2.0161253e+00 -5.2461330e-01 3.9176291e-01 2.0140614e+00 -5.2449734e-01 3.9165237e-01 2.0639027e-03 -1.1595406e-04 1.1054014e-04
169             2.0219295e+00 -5.1595131e-01 3.9006298e-01 2.0198663e+00 -5.1583640e-01 3.8995273e-01 2.0632183e-03 -1.1490653e-04 1.1024995e-04
170             2.0295706e+00 -5.0573408e-01 3.8747524e-01 2.0275071e+00 -5.0561975e-01 3.8736510e-01 2.0635073e-03 -1.1433422e-04 1.1013344e-04
171             2.0378756e+00 -4.9419364e-01 3.8445964e-01 2.0358131e+00 -4.9407984e-01 3.8435023e-01 2.0624323e-03 -1.1380225e-04 1.0940133e-04
172             2.0464256e+00 -4.8148659e-01 3.8113604e-01 2.0443612e+00 -4.8137337e-01 3.8102680e-01 2.0644090e-03 -1.1321965e-04 1.0923707e-04
173             2.0545816e+00 -4.6791191e-01 3.7790182e-01 2.0525167e+00 -4.6779975e-01 3.7779297e-01 2.0649105e-03 -1.1216319e-04 1.0884561e-04
174             2.0619649e+00 -4.5364210e-01 3.7464723e-01 2.0598990e+00 -4.5353096e-01 3.7453867e-01 2.0658843e-03 -1.1114405e-04 1.0856025e-04
175             2.0681048e+00 -4.3920621e-01 3.7067862e-01 2.0660391e+00 -4.3909658e-01 3.7057028e-01 2.0656848e-03 -1.0962863e-04 1.0834362e-04
176             2.0736001e+00 -4.2454552e-01 3.6532071e-01 2.0715341e+00 -4.2443770e-01 3.6521229e-01 2.0660457e-03 -1.0781885e-04 1.0842008e-04
177             2.0776602e+00 -4.1024825e-01 3.5827587e-01 2.0755947e+00 -4.1014258e-01 3.5816774e-01 2.0655087e-03 -1.0566471e-04 1.0813442e-04
178             2.0801058e+00 -3.9706032e-01 3.4928531e-01 2.0780400e+00 -3.9695702e-01 3.4917729e-01 2.0657470e-03 -1.0329610e-04 1.0802403e-04
179             2.0810015e+00 -3.8579820e-01 3.3866451e-01 2.0789364e+00 -3.8569759e-01 3.3855725e-01 2.0650422e-03 -1.0061281e-04 1.0726379e-04
180             2.0809106e+00 -3.7684225e-01 3.2603429e-01 2.0788453e+00 -3.7674453e-01 3.2592796e-01 2.0652875e-03 -9.7723861e-05 1.0633275e-04
181             2.0802492e+00 -3.7048044e-01 3.1147276e-01 2.0781846e+00 -3.7038521e-01 3.1136751e-01 2.0646752e-03 -9.5223718e-05 1.0525058e-04
182             2.0797534e+00 -3.6685041e-01 2.9501861e-01 2.0776887e+00 -3.6675798e-01 2.9491477e-01 2.0646966e-03 -9.2426438e-05 1.0383429e-04
183             2.0800513e+00 -3.6588576e-01 2.7625399e-01 2.0779875e+00 -3.6579538e-01 2.7615243e-01 2.0638698e-03 -9.0376280e-05 1.0155757e-04
184             2.0826706e+00 -3.6723036e-01 2.5452854e-01 2.0806061e+00 -3.6714218e-01 2.5442943e-01 2.0645146e-03 -8.8177044e-05 9.9109739e-05
185             2.0880335e+00 -3.7014404e-01 2.2931986e-01 2.0859692e+00 -3.7005764e-01 2.2922405e-01 2.0643429e-03 -8.6397791e-05 9.5818766e-05
186             2.0974812e+00 -3.7353562e-01 2.0002069e-01 2.0954169e+00 -3.7345096e-01 1.9992854e-01 2.0642201e-03 -8.4663062e-05 9.2155323e-05
187             2.1107485e+00 -3.7664875e-01 1.6709485e-01 2.1086844e+00 -3.7656555e-01 1.6700711e-01 2.0641210e-03 -8.3200894e-05 8.7742306e-05
188             2.1269625e+00 -3.7871925e-01 1.3046285e-01 2.1248969e+00 -3.7863757e-01 1.3037986e-01 2.0655757e-03 -8.1671912e-05 8.2987731e-05
189             2.1460718e+00 -3.7770497e-01 9.0639065e-02 2.1440054e+00 -3.7762436e-01 9.0561366e-02 2.0664067e-03 -8.0604570e-05 7.7698303e-05
190             2.1697321e+00 -3.7109924e-01 4.8426629e-02 2.1676636e+00 -3.7101951e-01 4.8354458e-02 2.0684897e-03 -7.9726752e-05 7.2171190e-05
191             2.1993201e+00 -3.5664780e-01 4.2239784e-03 2.1972491e+00 -3.5656939e-01 4.1577174e-03 2.0709979e-03 -7.8411801e-05 6.6261052e-05
192             2.2348569e+00 -3.3185974e-01 -4.0366852e-02 2.2327827e+00 -3.3178242e-01 -4.0427390e-02 2.0741525e-03 -7.7326337e-05 6.0538195e-05
193             2.2749423e+00 -2.9614005e-01 -8.2658117e-02 2.2728646e+00 -2.9606453e-01 -8.2712492e-02 2.0776847e-03 -7.5519086e-05 5.4374473e-05
194             2.3212352e+00 -2.4966470e-01 -1.2098010e-01 2.3191524e+00 -2.4959065e-01 -1.2102851e-01 2.0828008e-03 -7.4053362e-05 4.8403270e-05
195             2.3751952e+00 -1.9432644e-01 -1.5382215e-01 2.3731068e+00 -1.9425505e-01 -1.5386383e-01 2.0883604e-03 -7.1391059e-05 4.1680227e-05
196             2.4393664e+00 -1.3170181e-01 -1.8033224e-01 2.4372712e+00 -1.3163353e-01 -1.8036749e-01 2.0951695e-03 -6.8281581e-05 3.5256695e-05
197             2.5065036e+00 -6.7718733e-02 -2.0117622e-01 2.5044015e+00 -6.7654322e-02 -2.0120383e-01 2.1020822e-03 -6.4410976e-05 2.7609187e-05
198             2.5733156e+00 -3.7819730e-03 -2.1701892e-01 2.5712058e+00 -3.7216190e-03 -2.1703899e-01 2.1098577e-03 -6.0354010e-05 2.0069971e-05
199             2.6360931e+00 6.0009041e-02 -2.2801636e-01 2.6339758e+00 6.0064890e-02 -2.2802766e-01 2.1172951e-03 -5.5849449e-05 1.1302587e-05
200             2.6948535e+00 1.2418808e-01 -2.3401777e-01 2.6927286e+00 1.2423951e-01 -2.3402047e-01 2.1248919e-03 -5.1437703e-05 2.7010748e-06
201             2.7478436e+00 1.9020633e-01 -2.3445038e-01 2.7457132e+00 1.9025285e-01 -2.3444450e-01 2.1304104e-03 -4.6518483e-05 -5.8881052e-06
202             2.7929558e+00 2.5788940e-01 -2.2959519e-01 2.7908204e+00 2.5793109e-01 -2.2958311e-01 2.1354436e-03 -4.1690673e-05 -1.2080737e-05
203             2.8257837e+00 3.2639489e-01 -2.2036869e-01 2.8236453e+00 3.2643103e-01 -2.2035170e-01 2.1384282e-03 -3.6141847e-05 -1.6991501e-05
204             2.8443481e+00 3.9324720e-01 -2.0831589e-01 2.8422066e+00 3.9327750e-01 -2.0829546e-01 2.1415250e-03 -3.0300513e-05 -2.0424257e-05
205             2.8488105e+00 4.5810234e-01 -1.9518115e-01 2.8466679e+00 4.5812673e-01 -1.9515921e-01 2.1426127e-03 -2.4390979e-05 -2.1939496e-05