# Moment       
# CofR         : (0.0000000e+00 0.0000000e+00 0.0000000e+00)
#
# Time         	total_x total_y total_z	pressure_x pressure_y pressure_z	viscous_x viscous_y viscous_z
1               -5.6056170e-07 1.2865901e-05 -1.9417430e-06 -5.3290260e-07 1.2531271e-05 -1.9704496e-06 -2.7659090e-08 3.3462982e-07 2.8706641e-08
2               -3.8894303e-03 1.5918163e-01 -2.2248467e-02 -3.8675314e-03 1.5886621e-01 -2.2229412e-02 -2.1898958e-05 3.1542149e-04 -1.9055268e-05
3               3.7361201e-02 1.4663134e-01 -6.3702327e-02 3.7383616e-02 1.4635710e-01 -6.3686454e-02 -2.2415539e-05 2.7424493e-04 -1.5872750e-05
4               5.6447381e-02 2.7109683e-02 -7.1978959e-02 5.6473002e-02 2.6871039e-02 -7.1959733e-02 -2.5621411e-05 2.3864414e-04 -1.9226108e-05
5               6.2614204e-02 -6.6364757e-02 -6.7163331e-02 6.2643143e-02 -6.6576594e-02 -6.7138507e-02 -2.8938458e-05 2.1183757e-04 -2.4823383e-05
6               6.2058097e-02 -1.0768616e-01 -6.1327264e-02 6.2089761e-02 -1.0787898e-01 -6.1295554e-02 -3.1664061e-05 1.9281758e-04 -3.1710683e-05
7               5.9746544e-02 -1.1599081e-01 -5.8716378e-02 5.9779183e-02 -1.1617115e-01 -5.8681492e-02 -3.2638841e-05 1.8034149e-04 -3.4886334e-05
8               5.7941412e-02 -1.1480263e-01 -5.9108198e-02 5.7974803e-02 -1.1497453e-01 -5.9072056e-02 -3.3390740e-05 1.7189765e-04 -3.6141670e-05
9               5.7323733e-02 -1.1585180e-01 -6.0971521e-02 5.7357374e-02 -1.1601744e-01 -6.0934824e-02 -3.3640702e-05 1.6564409e-04 -3.6697634e-05
10              5.8002240e-02 -1.2145186e-01 -6.2146654e-02 5.8035571e-02 -1.2161237e-01 -6.2110536e-02 -3.3331824e-05 1.6050423e-04 -3.6118501e-05
11              5.9583724e-02 -1.3002863e-01 -6.1754295e-02 5.9616022e-02 -1.3018360e-01 -6.1718653e-02 -3.2297368e-05 1.5497050e-04 -3.5641565e-05
12              6.1583846e-02 -1.3916219e-01 -5.9782211e-02 6.1614980e-02 -1.3931143e-01 -5.9746761e-02 -3.1133600e-05 1.4924064e-04 -3.5449863e-05
13              6.3657904e-02 -1.4727151e-01 -5.6875290e-02 6.3687630e-02 -1.4741491e-01 -5.6841358e-02 -2.9725991e-05 1.4340012e-04 -3.3932110e-05
14              6.5700676e-02 -1.5358784e-01 -5.3553074e-02 6.5728908e-02 -1.5372517e-01 -5.3520084e-02 -2.8232328e-05 1.3732995e-04 -3.2989240e-05
15              6.7596876e-02 -1.5795263e-01 -5.0245484e-02 6.7623506e-02 -1.5808447e-01 -5.0213182e-02 -2.6630063e-05 1.3183929e-04 -3.2301886e-05
16              6.9347646e-02 -1.6059681e-01 -4.7153522e-02 6.9372662e-02 -1.6072272e-01 -4.7122403e-02 -2.5015526e-05 1.2591435e-04 -3.1118512e-05
17              7.0827279e-02 -1.6122933e-01 -4.4471995e-02 7.0850301e-02 -1.6134945e-01 -4.4441992e-02 -2.3022386e-05 1.2012159e-04 -3.0003400e-05
18              7.2006758e-02 -1.5943558e-01 -4.2478090e-02 7.2027984e-02 -1.5955029e-01 -4.2448793e-02 -2.1226424e-05 1.1470747e-04 -2.9297395e-05
19              7.2735260e-02 -1.5512337e-01 -4.1582738e-02 7.2754727e-02 -1.5523336e-01 -4.1554499e-02 -1.9467478e-05 1.0998904e-04 -2.8238584e-05
20              7.2938808e-02 -1.4815666e-01 -4.1892934e-02 7.2956788e-02 -1.4826263e-01 -4.1865521e-02 -1.7979710e-05 1.0596838e-04 -2.7413037e-05
21              7.2559774e-02 -1.3859628e-01 -4.3463450e-02 7.2576261e-02 -1.3869823e-01 -4.3436666e-02 -1.6487191e-05 1.0195119e-04 -2.6783843e-05
22              7.1627621e-02 -1.2645488e-01 -4.6154826e-02 7.1642862e-02 -1.2655353e-01 -4.6128364e-02 -1.5241026e-05 9.8648516e-05 -2.6461238e-05
23              7.0108883e-02 -1.1217978e-01 -4.9762939e-02 7.0122886e-02 -1.1227539e-01 -4.9736488e-02 -1.4003089e-05 9.5604918e-05 -2.6451394e-05
24              6.8043904e-02 -9.6661362e-02 -5.3988254e-02 6.8056806e-02 -9.6754520e-02 -5.3960751e-02 -1.2902573e-05 9.3157585e-05 -2.7502015e-05
25              6.5398968e-02 -8.0593237e-02 -5.8973080e-02 6.5411053e-02 -8.0684170e-02 -5.8944803e-02 -1.2085184e-05 9.0932973e-05 -2.8276710e-05
26              6.2443382e-02 -6.4581291e-02 -6.4488600e-02 6.2454815e-02 -6.4670961e-02 -6.4459399e-02 -1.1432986e-05 8.9670774e-05 -2.9201426e-05
27              5.9373249e-02 -4.8910406e-02 -7.0217414e-02 5.9384372e-02 -4.8999088e-02 -7.0186985e-02 -1.1123707e-05 8.8682492e-05 -3.0429146e-05
28              5.6311470e-02 -3.3948704e-02 -7.6407656e-02 5.6322456e-02 -3.4036791e-02 -7.6375336e-02 -1.0986308e-05 8.8087536e-05 -3.2320567e-05
29              5.3510258e-02 -1.9745361e-02 -8.2887631e-02 5.3521199e-02 -1.9832794e-02 -8.2853714e-02 -1.0940693e-05 8.7433267e-05 -3.3917549e-05
30              5.1177508e-02 -6.6803926e-03 -8.9407142e-02 5.1188462e-02 -6.7671654e-03 -8.9370651e-02 -1.0954303e-05 8.6772813e-05 -3.6490936e-05
31              4.9343766e-02 5.1302008e-03 -9.5764487e-02 4.9354759e-02 5.0442401e-03 -9.5725724e-02 -1.0993253e-05 8.5960684e-05 -3.8763747e-05
32              4.8101322e-02 1.5955602e-02 -1.0182608e-01 4.8112445e-02 1.5870472e-02 -1.0178490e-01 -1.1123159e-05 8.5130057e-05 -4.1175181e-05
33              4.7338628e-02 2.5868308e-02 -1.0736035e-01 4.7349921e-02 2.5784223e-02 -1.0731717e-01 -1.1292925e-05 8.4085508e-05 -4.3186755e-05
34              4.6937426e-02 3.5106251e-02 -1.1227028e-01 4.6948755e-02 3.5023472e-02 -1.1222515e-01 -1.1328838e-05 8.2778937e-05 -4.5129342e-05
35              4.6757751e-02 4.3564019e-02 -1.1623789e-01 4.6769121e-02 4.3483187e-02 -1.1619120e-01 -1.1369174e-05 8.0831651e-05 -4.6696534e-05
36              4.6747890e-02 5.1274787e-02 -1.1889312e-01 4.6759222e-02 5.1196275e-02 -1.1884469e-01 -1.1331827e-05 7.8512201e-05 -4.8429702e-05
37              4.6799720e-02 5.7939272e-02 -1.2075529e-01 4.6811038e-02 5.7863808e-02 -1.2070520e-01 -1.1317577e-05 7.5464680e-05 -5.0089406e-05
38              4.7021132e-02 6.3416575e-02 -1.2175684e-01 4.7032387e-02 6.3344248e-02 -1.2170552e-01 -1.1254600e-05 7.2326962e-05 -5.1322251e-05
39              4.7402889e-02 6.7076481e-02 -1.2241642e-01 4.7413897e-02 6.7007500e-02 -1.2236363e-01 -1.1007991e-05 6.8980864e-05 -5.2789782e-05
40              4.7981549e-02 6.8881204e-02 -1.2311673e-01 4.7992287e-02 6.8815328e-02 -1.2306283e-01 -1.0738297e-05 6.5876489e-05 -5.3907298e-05
41              4.8798663e-02 6.9067290e-02 -1.2420299e-01 4.8809251e-02 6.9004573e-02 -1.2414783e-01 -1.0587610e-05 6.2717514e-05 -5.5163791e-05
42              4.9835076e-02 6.7957052e-02 -1.2594158e-01 4.9845497e-02 6.7897141e-02 -1.2588552e-01 -1.0420893e-05 5.9911144e-05 -5.6063086e-05
43              5.1081894e-02 6.5834497e-02 -1.2863473e-01 5.1092324e-02 6.5777338e-02 -1.2857753e-01 -1.0430511e-05 5.7159200e-05 -5.7204805e-05
44              5.2465980e-02 6.2988505e-02 -1.3248978e-01 5.2476480e-02 6.2933694e-02 -1.3243143e-01 -1.0500131e-05 5.4810684e-05 -5.8350361e-05
45              5.3928439e-02 5.9296983e-02 -1.3760593e-01 5.3939008e-02 5.9244527e-02 -1.3754627e-01 -1.0569466e-05 5.2456148e-05 -5.9667696e-05
46              5.5443324e-02 5.4829114e-02 -1.4386739e-01 5.5453909e-02 5.4778796e-02 -1.4380626e-01 -1.0584682e-05 5.0318238e-05 -6.1129254e-05
47              5.6974056e-02 4.9620283e-02 -1.5104812e-01 5.6984537e-02 4.9572056e-02 -1.5098512e-01 -1.0481385e-05 4.8226670e-05 -6.2998995e-05
48              5.8593247e-02 4.3984047e-02 -1.5854174e-01 5.8603523e-02 4.3937687e-02 -1.5847655e-01 -1.0276045e-05 4.6360414e-05 -6.5184777e-05
49              6.0244456e-02 3.8025251e-02 -1.6631737e-01 6.0254378e-02 3.7980789e-02 -1.6624961e-01 -9.9223944e-06 4.4461573e-05 -6.7763485e-05
50              6.1973353e-02 3.2022928e-02 -1.7407117e-01 6.1982778e-02 3.1980081e-02 -1.7400055e-01 -9.4248406e-06 4.2846430e-05 -7.0622479e-05
51              6.3812644e-02 2.5492243e-02 -1.8182377e-01 6.3821492e-02 2.5450817e-02 -1.8175000e-01 -8.8483660e-06 4.1426019e-05 -7.3761053e-05
52              6.5888763e-02 1.8461203e-02 -1.8935651e-01 6.5896947e-02 1.8420765e-02 -1.8927946e-01 -8.1842199e-06 4.0438695e-05 -7.7046783e-05
53              6.8219061e-02 1.0770058e-02 -1.9708703e-01 6.8226474e-02 1.0730615e-02 -1.9700649e-01 -7.4138889e-06 3.9442955e-05 -8.0535181e-05
54              7.0754389e-02 2.4464525e-03 -2.0489073e-01 7.0760989e-02 2.4079169e-03 -2.0480688e-01 -6.6002262e-06 3.8535584e-05 -8.3854861e-05
55              7.3473677e-02 -6.7341643e-03 -2.1308106e-01 7.3479474e-02 -6.7716409e-03 -2.1299395e-01 -5.7969669e-06 3.7476607e-05 -8.7103923e-05
56              7.6177323e-02 -1.6614875e-02 -2.2182580e-01 7.6182350e-02 -1.6651118e-02 -2.2173588e-01 -5.0262866e-06 3.6243192e-05 -8.9917638e-05
57              7.8936826e-02 -2.7535822e-02 -2.3061647e-01 7.8941105e-02 -2.7570812e-02 -2.3052376e-01 -4.2787123e-06 3.4990491e-05 -9.2711641e-05
58              8.1806497e-02 -3.9442954e-02 -2.3930710e-01 8.1809968e-02 -3.9476619e-02 -2.3921189e-01 -3.4712877e-06 3.3665453e-05 -9.5205995e-05
59              8.4755634e-02 -5.2167355e-02 -2.4803075e-01 8.4758326e-02 -5.2199523e-02 -2.4793295e-01 -2.6918238e-06 3.2167984e-05 -9.7799332e-05
60              8.7851920e-02 -6.5357149e-02 -2.5652633e-01 8.7853838e-02 -6.5388020e-02 -2.5642606e-01 -1.9176502e-06 3.0870315e-05 -1.0027579e-04
61              9.1057557e-02 -7.8590260e-02 -2.6525350e-01 9.1058782e-02 -7.8619559e-02 -2.6515082e-01 -1.2248901e-06 2.9299502e-05 -1.0268015e-04
62              9.4464081e-02 -9.1560431e-02 -2.7440676e-01 9.4464666e-02 -9.1588043e-02 -2.7430204e-01 -5.8563599e-07 2.7611768e-05 -1.0472150e-04
63              9.7988135e-02 -1.0424945e-01 -2.8419341e-01 9.7988150e-02 -1.0427535e-01 -2.8408676e-01 -1.4847503e-08 2.5900954e-05 -1.0665227e-04
64              1.0160083e-01 -1.1662312e-01 -2.9438131e-01 1.0160030e-01 -1.1664712e-01 -2.9427287e-01 5.3908416e-07 2.3999200e-05 -1.0844335e-04
65              1.0524965e-01 -1.2872260e-01 -3.0475167e-01 1.0524862e-01 -1.2874452e-01 -3.0464175e-01 1.0301539e-06 2.1922204e-05 -1.0991889e-04
66              1.0892426e-01 -1.4054871e-01 -3.1494408e-01 1.0892273e-01 -1.4056862e-01 -3.1483262e-01 1.5259074e-06 1.9911580e-05 -1.1146348e-04
67              1.1264657e-01 -1.5179293e-01 -3.2493267e-01 1.1264455e-01 -1.5181074e-01 -3.2481972e-01 2.0181942e-06 1.7812513e-05 -1.1295053e-04
68              1.1649650e-01 -1.6239574e-01 -3.3449404e-01 1.1649398e-01 -1.6241164e-01 -3.3437976e-01 2.5230934e-06 1.5899143e-05 -1.1428626e-04
69              1.2039923e-01 -1.7219245e-01 -3.4387738e-01 1.2039624e-01 -1.7220644e-01 -3.4376195e-01 2.9883375e-06 1.3990961e-05 -1.1542936e-04
70              1.2435282e-01 -1.8116595e-01 -3.5271373e-01 1.2434937e-01 -1.8117805e-01 -3.5259729e-01 3.4539109e-06 1.2101556e-05 -1.1644039e-04
71              1.2832961e-01 -1.8932426e-01 -3.6089435e-01 1.2832573e-01 -1.8933436e-01 -3.6077714e-01 3.8769689e-06 1.0106282e-05 -1.1720996e-04
72              1.3230289e-01 -1.9649103e-01 -3.6811240e-01 1.3229858e-01 -1.9649937e-01 -3.6799442e-01 4.3007150e-06 8.3394640e-06 -1.1797952e-04
73              1.3615514e-01 -2.0255403e-01 -3.7417422e-01 1.3615048e-01 -2.0256040e-01 -3.7405600e-01 4.6560485e-06 6.3763514e-06 -1.1822446e-04
74              1.3981600e-01 -2.0751535e-01 -3.7890647e-01 1.3981090e-01 -2.0751988e-01 -3.7878770e-01 5.1035654e-06 4.5296637e-06 -1.1877590e-04
75              1.4317575e-01 -2.1154024e-01 -3.8232234e-01 1.4317035e-01 -2.1154279e-01 -3.8220366e-01 5.3992281e-06 2.5426448e-06 -1.1867758e-04
76              1.4630735e-01 -2.1454860e-01 -3.8425401e-01 1.4630164e-01 -2.1454948e-01 -3.8413527e-01 5.7083745e-06 8.8423707e-07 -1.1873810e-04
77              1.4911185e-01 -2.1645585e-01 -3.8467672e-01 1.4910600e-01 -2.1645499e-01 -3.8455831e-01 5.8505671e-06 -8.5830348e-07 -1.1840868e-04
78              1.5154358e-01 -2.1706034e-01 -3.8345127e-01 1.5153756e-01 -2.1705779e-01 -3.8333309e-01 6.0229231e-06 -2.5467714e-06 -1.1817559e-04
79              1.5351286e-01 -2.1618713e-01 -3.8057363e-01 1.5350675e-01 -2.1618311e-01 -3.8045614e-01 6.1095402e-06 -4.0196581e-06 -1.1748851e-04
80              1.5501991e-01 -2.1370379e-01 -3.7598839e-01 1.5501381e-01 -2.1369830e-01 -3.7587148e-01 6.1007069e-06 -5.4915150e-06 -1.1691491e-04
81              1.5602934e-01 -2.0967375e-01 -3.6980287e-01 1.5602323e-01 -2.0966707e-01 -3.6968679e-01 6.1074591e-06 -6.6858571e-06 -1.1608214e-04
82              1.5658425e-01 -2.0413243e-01 -3.6202344e-01 1.5657826e-01 -2.0412465e-01 -3.6190828e-01 5.9835998e-06 -7.7875108e-06 -1.1515772e-04
83              1.5667301e-01 -1.9711414e-01 -3.5283027e-01 1.5666723e-01 -1.9710535e-01 -3.5271622e-01 5.7828159e-06 -8.7937648e-06 -1.1405147e-04
84              1.5628639e-01 -1.8852515e-01 -3.4232188e-01 1.5628090e-01 -1.8851571e-01 -3.4220919e-01 5.4994119e-06 -9.4306054e-06 -1.1269580e-04
85              1.5543495e-01 -1.7817526e-01 -3.3057977e-01 1.5542980e-01 -1.7816544e-01 -3.3046873e-01 5.1578560e-06 -9.8143096e-06 -1.1104214e-04
86              1.5414710e-01 -1.6599678e-01 -3.1776786e-01 1.5414237e-01 -1.6598672e-01 -3.1765829e-01 4.7356049e-06 -1.0058455e-05 -1.0957047e-04
87              1.5242085e-01 -1.5201203e-01 -3.0421092e-01 1.5241654e-01 -1.5200206e-01 -3.0410329e-01 4.3028880e-06 -9.9648275e-06 -1.0763662e-04
88              1.5026332e-01 -1.3616367e-01 -2.9016423e-01 1.5025948e-01 -1.3615399e-01 -2.9005837e-01 3.8430310e-06 -9.6833428e-06 -1.0586030e-04
89              1.4765895e-01 -1.1841317e-01 -2.7561674e-01 1.4765563e-01 -1.1840408e-01 -2.7551319e-01 3.3156654e-06 -9.0871882e-06 -1.0354596e-04
90              1.4464407e-01 -9.8878244e-02 -2.6102556e-01 1.4464133e-01 -9.8869987e-02 -2.6092385e-01 2.7398474e-06 -8.2571889e-06 -1.0170543e-04
91              1.4129302e-01 -7.8056155e-02 -2.4720707e-01 1.4129086e-01 -7.8049107e-02 -2.4710746e-01 2.1647335e-06 -7.0487653e-06 -9.9607883e-05
92              1.3779393e-01 -5.6615142e-02 -2.3434767e-01 1.3779243e-01 -5.6609114e-02 -2.3424992e-01 1.5017256e-06 -6.0284487e-06 -9.7752461e-05
93              1.3428111e-01 -3.4958374e-02 -2.2284038e-01 1.3428016e-01 -3.4954334e-02 -2.2274489e-01 9.4452754e-07 -4.0395964e-06 -9.5487957e-05
94              1.3102708e-01 -1.3980479e-02 -2.1209843e-01 1.3102678e-01 -1.3978459e-02 -2.1200527e-01 2.9904430e-07 -2.0197734e-06 -9.3159079e-05
95              1.2826643e-01 5.0096312e-03 -2.0210286e-01 1.2826663e-01 5.0094106e-03 -2.0201195e-01 -2.0815926e-07 2.2061419e-07 -9.0907190e-05
96              1.2620639e-01 2.1172611e-02 -1.9272064e-01 1.2620725e-01 2.1170364e-02 -1.9263213e-01 -8.6122576e-07 2.2467036e-06 -8.8511792e-05
97              1.2466990e-01 3.4661300e-02 -1.8374209e-01 1.2467127e-01 3.4656941e-02 -1.8365599e-01 -1.3725067e-06 4.3586470e-06 -8.6108194e-05
98              1.2319174e-01 4.5633262e-02 -1.7601223e-01 1.2319359e-01 4.5626839e-02 -1.7592861e-01 -1.8571583e-06 6.4226746e-06 -8.3623276e-05
99              1.2128872e-01 5.4870353e-02 -1.7084596e-01 1.2129094e-01 5.4861577e-02 -1.7076469e-01 -2.2136336e-06 8.7763915e-06 -8.1271136e-05
100             1.1902308e-01 6.2324981e-02 -1.6872133e-01 1.1902566e-01 6.2314162e-02 -1.6864232e-01 -2.5796227e-06 1.0818706e-05 -7.9007533e-05
101             1.1658964e-01 6.8500353e-02 -1.6969790e-01 1.1659265e-01 6.8487296e-02 -1.6962093e-01 -3.0115594e-06 1.3057757e-05 -7.6967716e-05
102             1.1409506e-01 7.4205489e-02 -1.7404236e-01 1.1409835e-01 7.4190368e-02 -1.7396677e-01 -3.2943495e-06 1.5120695e-05 -7.5582723e-05
103             1.1158340e-01 8.0086543e-02 -1.8140976e-01 1.1158691e-01 8.0068940e-02 -1.8133532e-01 -3.5049609e-06 1.7602979e-05 -7.4434467e-05
104             1.0919429e-01 8.6103962e-02 -1.9096365e-01 1.0919819e-01 8.6084315e-02 -1.9088985e-01 -3.9004017e-06 1.9646416e-05 -7.3805273e-05
105             1.0707460e-01 9.1505797e-02 -2.0142657e-01 1.0707877e-01 9.1483794e-02 -2.0135327e-01 -4.1692293e-06 2.2002657e-05 -7.3299558e-05
106             1.0538918e-01 9.5614230e-02 -2.1143154e-01 1.0539353e-01 9.5589841e-02 -2.1135828e-01 -4.3440981e-06 2.4388194e-05 -7.3256079e-05
107             1.0400084e-01 9.8031843e-02 -2.2018369e-01 1.0400523e-01 9.8005149e-02 -2.2011003e-01 -4.3971700e-06 2.6694213e-05 -7.3651286e-05
108             1.0283339e-01 9.8731337e-02 -2.2699113e-01 1.0283783e-01 9.8702570e-02 -2.2691706e-01 -4.4415028e-06 2.8766516e-05 -7.4072978e-05
109             1.0178201e-01 9.7382021e-02 -2.3201440e-01 1.0178635e-01 9.7351249e-02 -2.3193977e-01 -4.3400999e-06 3.0772073e-05 -7.4628560e-05
110             1.0076143e-01 9.4100582e-02 -2.3527096e-01 1.0076563e-01 9.4068209e-02 -2.3519553e-01 -4.1947153e-06 3.2373116e-05 -7.5438498e-05
111             9.9709585e-02 8.9286275e-02 -2.3739200e-01 9.9713518e-02 8.9252597e-02 -2.3731560e-01 -3.9332334e-06 3.3678500e-05 -7.6399309e-05
112             9.8564828e-02 8.3586254e-02 -2.3887935e-01 9.8568610e-02 8.3552062e-02 -2.3880193e-01 -3.7823923e-06 3.4192073e-05 -7.7422501e-05
113             9.7390043e-02 7.7823265e-02 -2.4024119e-01 9.7393666e-02 7.7788855e-02 -2.4016267e-01 -3.6239455e-06 3.4410117e-05 -7.8522683e-05
114             9.6303878e-02 7.2795696e-02 -2.4148515e-01 9.6307348e-02 7.2761280e-02 -2.4140568e-01 -3.4696616e-06 3.4416122e-05 -7.9468336e-05
115             9.5443509e-02 6.8804633e-02 -2.4271995e-01 9.5446871e-02 6.8770525e-02 -2.4263927e-01 -3.3625420e-06 3.4108258e-05 -8.0681176e-05
116             9.4898403e-02 6.5976827e-02 -2.4390703e-01 9.4901486e-02 6.5942873e-02 -2.4382553e-01 -3.0831609e-06 3.3954124e-05 -8.1498904e-05
117             9.4614215e-02 6.4149372e-02 -2.4510303e-01 9.4617142e-02 6.4115937e-02 -2.4502029e-01 -2.9272118e-06 3.3435728e-05 -8.2745722e-05
118             9.4536608e-02 6.3136306e-02 -2.4633678e-01 9.4539468e-02 6.3103457e-02 -2.4625258e-01 -2.8598137e-06 3.2848619e-05 -8.4206933e-05
119             9.4606081e-02 6.2736880e-02 -2.4778703e-01 9.4608834e-02 6.2704737e-02 -2.4770098e-01 -2.7532843e-06 3.2142179e-05 -8.6047097e-05
120             9.4833040e-02 6.2732530e-02 -2.4936829e-01 9.4835570e-02 6.2701049e-02 -2.4928060e-01 -2.5303037e-06 3.1481107e-05 -8.7688919e-05
121             9.5151845e-02 6.2961947e-02 -2.5121799e-01 9.5154236e-02 6.2931191e-02 -2.5112853e-01 -2.3906141e-06 3.0756661e-05 -8.9460772e-05
122             9.5510657e-02 6.3386228e-02 -2.5328154e-01 9.5512883e-02 6.3356243e-02 -2.5319058e-01 -2.2261145e-06 2.9984409e-05 -9.0961481e-05
123             9.5852753e-02 6.3935238e-02 -2.5556526e-01 9.5854727e-02 6.3906021e-02 -2.5547267e-01 -1.9738350e-06 2.9217146e-05 -9.2590622e-05
124             9.6157887e-02 6.4477142e-02 -2.5791596e-01 9.6159597e-02 6.4448611e-02 -2.5782181e-01 -1.7101456e-06 2.8531169e-05 -9.4152256e-05
125             9.6348324e-02 6.4848576e-02 -2.6045856e-01 9.6349755e-02 6.4820878e-02 -2.6036286e-01 -1.4309847e-06 2.7697340e-05 -9.5702517e-05
126             9.6467394e-02 6.4945036e-02 -2.6305770e-01 9.6468607e-02 6.4918313e-02 -2.6296063e-01 -1.2131016e-06 2.6723603e-05 -9.7078448e-05
127             9.6490589e-02 6.4745200e-02 -2.6569360e-01 9.6491429e-02 6.4719447e-02 -2.6559522e-01 -8.3992776e-07 2.5752760e-05 -9.8383814e-05
128             9.6432076e-02 6.4375813e-02 -2.6808871e-01 9.6432555e-02 6.4350967e-02 -2.6798908e-01 -4.7895535e-07 2.4846501e-05 -9.9623577e-05
129             9.6365460e-02 6.3945892e-02 -2.7020389e-01 9.6365520e-02 6.3921978e-02 -2.7010322e-01 -6.0502779e-08 2.3914143e-05 -1.0066937e-04
130             9.6412122e-02 6.3569559e-02 -2.7181299e-01 9.6411764e-02 6.3546574e-02 -2.7171159e-01 3.5827920e-07 2.2984868e-05 -1.0139387e-04
131             9.6549461e-02 6.3184628e-02 -2.7296534e-01 9.6548649e-02 6.3162476e-02 -2.7286316e-01 8.1217088e-07 2.2151877e-05 -1.0217884e-04
132             9.6700113e-02 6.2566293e-02 -2.7375034e-01 9.6698884e-02 6.2544768e-02 -2.7364723e-01 1.2282462e-06 2.1524229e-05 -1.0311276e-04
133             9.6940321e-02 6.2151510e-02 -2.7437698e-01 9.6938742e-02 6.2130587e-02 -2.7427305e-01 1.5786867e-06 2.0922717e-05 -1.0392908e-04
134             9.7256491e-02 6.2310529e-02 -2.7441618e-01 9.7254622e-02 6.2290232e-02 -2.7431158e-01 1.8687988e-06 2.0296933e-05 -1.0459903e-04
135             9.7594831e-02 6.2930147e-02 -2.7429488e-01 9.7592696e-02 6.2910231e-02 -2.7418922e-01 2.1348289e-06 1.9916442e-05 -1.0566172e-04
136             9.7870262e-02 6.4081088e-02 -2.7364627e-01 9.7868026e-02 6.4061850e-02 -2.7354038e-01 2.2361896e-06 1.9237768e-05 -1.0588499e-04
137             9.8094143e-02 6.5688795e-02 -2.7283183e-01 9.8091810e-02 6.5669975e-02 -2.7272539e-01 2.3329958e-06 1.8819549e-05 -1.0644497e-04
138             9.8219806e-02 6.7532732e-02 -2.7191206e-01 9.8217481e-02 6.7514395e-02 -2.7180523e-01 2.3248901e-06 1.8336797e-05 -1.0683416e-04
139             9.8249595e-02 6.9712769e-02 -2.7084664e-01 9.8247367e-02 6.9694907e-02 -2.7073933e-01 2.2279379e-06 1.7862845e-05 -1.0730546e-04
140             9.8229730e-02 7.2186489e-02 -2.6932214e-01 9.8227580e-02 7.2169009e-02 -2.6921451e-01 2.1492109e-06 1.7479858e-05 -1.0763236e-04
141             9.8115611e-02 7.4750489e-02 -2.6732150e-01 9.8113534e-02 7.4733294e-02 -2.6721351e-01 2.0768953e-06 1.7194318e-05 -1.0798639e-04
142             9.7989137e-02 7.7217905e-02 -2.6483779e-01 9.7987153e-02 7.7200983e-02 -2.6472959e-01 1.9835701e-06 1.6921973e-05 -1.0819815e-04
143             9.7882138e-02 7.9489799e-02 -2.6193966e-01 9.7880216e-02 7.9473146e-02 -2.6183127e-01 1.9217639e-06 1.6653481e-05 -1.0839238e-04
144             9.7884648e-02 8.1504943e-02 -2.5839483e-01 9.7882697e-02 8.1488294e-02 -2.5828607e-01 1.9515139e-06 1.6648716e-05 -1.0875771e-04
145             9.7974327e-02 8.3253542e-02 -2.5434890e-01 9.7972476e-02 8.3237218e-02 -2.5424031e-01 1.8516263e-06 1.6324361e-05 -1.0859315e-04
146             9.8207972e-02 8.4595795e-02 -2.4973374e-01 9.8206185e-02 8.4579694e-02 -2.4962517e-01 1.7864347e-06 1.6100580e-05 -1.0856663e-04
147             9.8530376e-02 8.5501721e-02 -2.4499686e-01 9.8528757e-02 8.5486084e-02 -2.4488814e-01 1.6191250e-06 1.5636557e-05 -1.0871412e-04
148             9.8922649e-02 8.5857294e-02 -2.4032468e-01 9.8921204e-02 8.5842087e-02 -2.4021596e-01 1.4459762e-06 1.5207080e-05 -1.0871623e-04
149             9.9388570e-02 8.5300540e-02 -2.3587084e-01 9.9387278e-02 8.5285781e-02 -2.3576198e-01 1.2926338e-06 1.4758364e-05 -1.0886079e-04
150             9.9940002e-02 8.4037669e-02 -2.3157984e-01 9.9938889e-02 8.4023301e-02 -2.3147113e-01 1.1127394e-06 1.4367583e-05 -1.0871536e-04
151             1.0054543e-01 8.2262977e-02 -2.2762862e-01 1.0054446e-01 8.2248935e-02 -2.2752009e-01 9.6581931e-07 1.4041605e-05 -1.0853059e-04
152             1.0119946e-01 7.9932084e-02 -2.2369020e-01 1.0119855e-01 7.9918116e-02 -2.2358221e-01 9.0783822e-07 1.3967924e-05 -1.0798620e-04
153             1.0173864e-01 7.7290702e-02 -2.2004792e-01 1.0173779e-01 7.7276842e-02 -2.1994047e-01 8.4567795e-07 1.3859746e-05 -1.0744782e-04
154             1.0219233e-01 7.4314852e-02 -2.1650849e-01 1.0219154e-01 7.4300989e-02 -2.1640174e-01 7.8881047e-07 1.3862375e-05 -1.0674502e-04
155             1.0251019e-01 7.1192526e-02 -2.1339389e-01 1.0250944e-01 7.1178690e-02 -2.1328776e-01 7.5459461e-07 1.3836030e-05 -1.0612258e-04
156             1.0279745e-01 6.8108063e-02 -2.1054992e-01 1.0279667e-01 6.8094136e-02 -2.1044494e-01 7.7329932e-07 1.3926670e-05 -1.0498297e-04
157             1.0307511e-01 6.5338453e-02 -2.0818459e-01 1.0307440e-01 6.5324479e-02 -2.0808037e-01 7.0940901e-07 1.3974009e-05 -1.0421261e-04
158             1.0349981e-01 6.2761771e-02 -2.0632282e-01 1.0349913e-01 6.2747742e-02 -2.0621954e-01 6.8354203e-07 1.4028922e-05 -1.0328234e-04
159             1.0404343e-01 6.0657364e-02 -2.0468388e-01 1.0404283e-01 6.0643323e-02 -2.0458092e-01 6.0126634e-07 1.4040118e-05 -1.0295621e-04
160             1.0472696e-01 5.8990001e-02 -2.0305526e-01 1.0472641e-01 5.8976011e-02 -2.0295309e-01 5.5562944e-07 1.3990051e-05 -1.0217408e-04
161             1.0544323e-01 5.7529193e-02 -2.0186760e-01 1.0544264e-01 5.7515207e-02 -2.0176563e-01 5.9747924e-07 1.3985653e-05 -1.0197222e-04
162             1.0616210e-01 5.6052262e-02 -2.0101463e-01 1.0616144e-01 5.6038134e-02 -2.0091314e-01 6.6047904e-07 1.4128304e-05 -1.0149023e-04
163             1.0672965e-01 5.4479459e-02 -2.0066241e-01 1.0672882e-01 5.4465274e-02 -2.0056113e-01 8.3888973e-07 1.4185370e-05 -1.0127892e-04
164             1.0714105e-01 5.2913978e-02 -2.0050471e-01 1.0713993e-01 5.2899344e-02 -2.0040393e-01 1.1278119e-06 1.4634039e-05 -1.0077888e-04
165             1.0738711e-01 5.1530692e-02 -2.0040934e-01 1.0738592e-01 5.1516346e-02 -2.0030814e-01 1.1910559e-06 1.4345666e-05 -1.0119754e-04
166             1.0750159e-01 5.0590841e-02 -1.9995354e-01 1.0750021e-01 5.0576453e-02 -1.9985259e-01 1.3840781e-06 1.4387475e-05 -1.0094419e-04
167             1.0750056e-01 5.0211545e-02 -1.9916135e-01 1.0749887e-01 5.0196971e-02 -1.9906013e-01 1.6912538e-06 1.4574067e-05 -1.0122153e-04
168             1.0750158e-01 5.0479565e-02 -1.9774587e-01 1.0749972e-01 5.0464836e-02 -1.9764474e-01 1.8583632e-06 1.4729481e-05 -1.0113757e-04
169             1.0747233e-01 5.1311460e-02 -1.9592717e-01 1.0747033e-01 5.1296701e-02 -1.9582587e-01 1.9955675e-06 1.4758807e-05 -1.0129931e-04
170             1.0740562e-01 5.2543674e-02 -1.9360786e-01 1.0740355e-01 5.2528688e-02 -1.9350655e-01 2.0693002e-06 1.4986435e-05 -1.0131548e-04
171             1.0717033e-01 5.4048108e-02 -1.9090722e-01 1.0716806e-01 5.4032872e-02 -1.9080590e-01 2.2743487e-06 1.5236614e-05 -1.0131821e-04
172             1.0680443e-01 5.5724339e-02 -1.8764338e-01 1.0680215e-01 5.5708799e-02 -1.8754230e-01 2.2773448e-06 1.5540046e-05 -1.0107383e-04
173             1.0619830e-01 5.7373916e-02 -1.8433552e-01 1.0619603e-01 5.7358036e-02 -1.8423460e-01 2.2707145e-06 1.5879436e-05 -1.0091894e-04
174             1.0547062e-01 5.8961716e-02 -1.8071980e-01 1.0546837e-01 5.8945374e-02 -1.8061961e-01 2.2488853e-06 1.6341301e-05 -1.0018884e-04
175             1.0466425e-01 6.0609407e-02 -1.7702691e-01 1.0466223e-01 6.0592835e-02 -1.7692697e-01 2.0235767e-06 1.6571772e-05 -9.9940500e-05
176             1.0387757e-01 6.2414958e-02 -1.7322140e-01 1.0387582e-01 6.2398136e-02 -1.7312227e-01 1.7429741e-06 1.6821808e-05 -9.9136776e-05
177             1.0303732e-01 6.4485604e-02 -1.6966307e-01 1.0303592e-01 6.4468638e-02 -1.6956440e-01 1.3975965e-06 1.6966626e-05 -9.8671269e-05
178             1.0207002e-01 6.6873044e-02 -1.6641255e-01 1.0206902e-01 6.6855861e-02 -1.6631488e-01 1.0025855e-06 1.7182940e-05 -9.7666739e-05
179             1.0090613e-01 6.9457846e-02 -1.6393542e-01 1.0090554e-01 6.9440509e-02 -1.6383834e-01 5.8876355e-07 1.7336777e-05 -9.7080499e-05
180             9.9481896e-02 7.2280749e-02 -1.6222023e-01 9.9481618e-02 7.2262954e-02 -1.6212429e-01 2.7748646e-07 1.7794628e-05 -9.5937010e-05
181             9.7756859e-02 7.5294934e-02 -1.6158125e-01 9.7756953e-02 7.5276926e-02 -1.6148579e-01 -9.4658808e-08 1.8007546e-05 -9.5458217e-05
182             9.5773225e-02 7.8516593e-02 -1.6195033e-01 9.5773602e-02 7.8498032e-02 -1.6185597e-01 -3.7657063e-07 1.8561045e-05 -9.4359296e-05
183             9.3387160e-02 8.2099057e-02 -1.6355161e-01 9.3387665e-02 8.2079847e-02 -1.6345757e-01 -5.0480918e-07 1.9210272e-05 -9.4042724e-05
184             9.0560998e-02 8.6230925e-02 -1.6611757e-01 9.0561658e-02 8.6210771e-02 -1.6602434e-01 -6.6074110e-07 2.0153434e-05 -9.3229136e-05
185             8.7247018e-02 9.1118663e-02 -1.6966927e-01 8.7247721e-02 9.1097459e-02 -1.6957614e-01 -7.0342431e-07 2.1204252e-05 -9.3133330e-05
186             8.3469064e-02 9.6889055e-02 -1.7380893e-01 8.3469753e-02 9.6866564e-02 -1.7371626e-01 -6.8834157e-07 2.2490824e-05 -9.2674684e-05
187             7.9206529e-02 1.0349164e-01 -1.7846020e-01 7.9207261e-02 1.0346762e-01 -1.7836753e-01 -7.3163359e-07 2.4023517e-05 -9.2668360e-05
188             7.4554719e-02 1.1097016e-01 -1.8311350e-01 7.4555580e-02 1.1094422e-01 -1.8302133e-01 -8.6175032e-07 2.5938864e-05 -9.2171937e-05
189             6.9663322e-02 1.1915491e-01 -1.8752096e-01 6.9664462e-02 1.1912697e-01 -1.8742869e-01 -1.1405068e-06 2.7937423e-05 -9.2268811e-05
190             6.4842689e-02 1.2778919e-01 -1.9081753e-01 6.4844321e-02 1.2775913e-01 -1.9072553e-01 -1.6324877e-06 3.0064644e-05 -9.2004202e-05
191             6.0135433e-02 1.3668657e-01 -1.9274627e-01 6.0137542e-02 1.3665465e-01 -1.9265403e-01 -2.1094255e-06 3.1922358e-05 -9.2233975e-05
192             5.5814723e-02 1.4543603e-01 -1.9252114e-01 5.5817639e-02 1.4540198e-01 -1.9242916e-01 -2.9160127e-06 3.4049425e-05 -9.1988158e-05
193             5.1864927e-02 1.5349683e-01 -1.9013171e-01 5.1868511e-02 1.5346100e-01 -1.9003954e-01 -3.5838510e-06 3.5833546e-05 -9.2171151e-05
194             4.8453392e-02 1.6042626e-01 -1.8544546e-01 4.8457815e-02 1.6038861e-01 -1.8535324e-01 -4.4228917e-06 3.7650639e-05 -9.2219948e-05
195             4.5477163e-02 1.6592095e-01 -1.7913844e-01 4.5482334e-02 1.6588154e-01 -1.7904618e-01 -5.1711301e-06 3.9416850e-05 -9.2263149e-05
196             4.2985399e-02 1.6986007e-01 -1.7142827e-01 4.2991339e-02 1.6981878e-01 -1.7133654e-01 -5.9403802e-06 4.1286229e-05 -9.1732910e-05
197             4.0640027e-02 1.7281909e-01 -1.6344949e-01 4.0646770e-02 1.7277561e-01 -1.6335818e-01 -6.7430213e-06 4.3474834e-05 -9.1316837e-05
198             3.8385327e-02 1.7525263e-01 -1.5526422e-01 3.8392802e-02 1.7520661e-01 -1.5517384e-01 -7.4750060e-06 4.6020628e-05 -9.0384596e-05
199             3.6112264e-02 1.7750653e-01 -1.4691866e-01 3.6120550e-02 1.7745758e-01 -1.4682891e-01 -8.2855729e-06 4.8951251e-05 -8.9758239e-05
200             3.3813098e-02 1.7977531e-01 -1.3804564e-01 3.3822179e-02 1.7972321e-01 -1.3795685e-01 -9.0810030e-06 5.2099985e-05 -8.8788729e-05
201             3.1396975e-02 1.8207511e-01 -1.2842180e-01 3.1406864e-02 1.8201967e-01 -1.2833388e-01 -9.8891277e-06 5.5440905e-05 -8.7917054e-05
202             2.8877734e-02 1.8424046e-01 -1.1792323e-01 2.8888259e-02 1.8418255e-01 -1.1783644e-01 -1.0525238e-05 5.7916588e-05 -8.6797125e-05
203             2.6105465e-02 1.8632081e-01 -1.0691342e-01 2.6116562e-02 1.8626091e-01 -1.0682760e-01 -1.1097849e-05 5.9898777e-05 -8.5824685e-05